# LAMMPS data file

512 atoms 

1 atom types

-9.80281072799e-07 0.0084697705021 xlo xhi
-9.91048901585e-07 0.00201553567694 ylo yhi
-9.98026746437e-07 0.00206031945489 zlo zhi

Atoms

2 1 2e-06 1000.0 2.02850265643e-07 7.44471050173e-08 7.2270262934e-07
3 1 2e-06 1000.0 2.02850265643e-07 7.44471050173e-08 7.2270262934e-07
4 1 2e-06 1000.0 7.69504594137e-08 6.4499379271e-07 6.94816033527e-06
5 1 2e-06 1000.0 2.56852703229e-06 1.17130719772e-07 2.79097858703e-06
6 1 2e-06 1000.0 1.13436837574e-05 8.01225773563e-07 1.12896982e-06
7 1 2e-06 1000.0 2.37185048232e-06 8.95109841514e-09 8.63467323218e-07
8 1 2e-06 1000.0 1.43184097627e-05 1.98326079494e-05 4.64908330285e-06
9 1 2e-06 1000.0 1.82176996866e-05 6.89255465194e-06 2.26540060436e-06
10 1 2e-06 1000.0 3.51459752637e-06 8.61001761297e-06 1.69993929939e-08
11 1 2e-06 1000.0 9.53459242937e-06 3.52940470408e-06 1.74119042665e-06
12 1 2e-06 1000.0 1.06645525583e-05 1.31985754674e-06 2.85189066051e-07
13 1 2e-06 1000.0 1.10666126678e-05 6.96309036189e-06 3.48516136321e-06
14 1 2e-06 1000.0 1.22948495035e-06 8.23583870846e-06 1.00378245806e-05
15 1 2e-06 1000.0 1.036690223e-06 9.91288980631e-06 2.64882064419e-05
16 1 2e-06 1000.0 1.97189272014e-08 4.17751910153e-06 3.39561943279e-07
17 1 2e-06 1000.0 5.16750394381e-07 4.82613065059e-06 1.75745386793e-06
18 1 2e-06 1000.0 0.000124433835322 6.30417111856e-05 6.16303197688e-05
19 1 2e-06 1000.0 0.000111587489461 3.63545045239e-05 6.19689038944e-05
20 1 2e-06 1000.0 9.64339385826e-05 4.79146781479e-05 3.2964545805e-05
21 1 2e-06 1000.0 9.19770085395e-05 7.4049012232e-05 4.62006100916e-05
22 1 2e-06 1000.0 9.87440913376e-05 8.64692051209e-05 1.97384664633e-05
23 1 2e-06 1000.0 8.06340340988e-05 6.68681194144e-05 9.55854214359e-06
24 1 2e-06 1000.0 8.63168017963e-05 0.000108267748466 3.57424535433e-05
25 1 2e-06 1000.0 7.16049940609e-05 0.000148461646987 4.04790331353e-05
26 1 2e-06 1000.0 3.75634662498e-05 3.50625338788e-05 2.23988563089e-05
27 1 2e-06 1000.0 2.78860727389e-05 4.51281788398e-05 9.6471076175e-06
28 1 2e-06 1000.0 1.75242406074e-05 2.77285036352e-05 1.5515145955e-05
29 1 2e-06 1000.0 8.30934777332e-06 4.13928004244e-05 8.82788563328e-06
30 1 2e-06 1000.0 3.56232572045e-05 5.12486926213e-05 1.97325356287e-09
31 1 2e-06 1000.0 4.76765039712e-05 7.81879045542e-05 3.38660648243e-07
32 1 2e-06 1000.0 5.21001220095e-05 6.26844838097e-05 1.74402740644e-06
33 1 2e-06 1000.0 5.18041504154e-05 5.29699492842e-05 1.03399153429e-05
34 1 2e-06 1000.0 6.01821874675e-05 0.000687970018689 0.000363005401007
35 1 2e-06 1000.0 4.92857345515e-05 0.000785604662168 0.000345420446849
36 1 2e-06 1000.0 3.58929974194e-05 0.000687493317427 0.000399607889417
37 1 2e-06 1000.0 3.02273223016e-05 0.000707177520238 0.000327180002231
38 1 2e-06 1000.0 2.33433167361e-05 0.000564817507683 0.000364634363245
39 1 2e-06 1000.0 9.85208603301e-06 0.000608321857723 0.000386830453792
40 1 2e-06 1000.0 3.2317456509e-05 0.000610364344137 0.00030460847914
41 1 2e-06 1000.0 1.42755486427e-05 0.000580897695348 0.000303759139414
42 1 2e-06 1000.0 6.85868110907e-05 0.000669716566153 0.00021469235096
43 1 2e-06 1000.0 4.91988834079e-05 0.000643176366424 0.000259537128572
44 1 2e-06 1000.0 9.07152709953e-05 0.000635306618582 0.000258156757964
45 1 2e-06 1000.0 7.60151517634e-05 0.000552938182226 0.00028119832255
46 1 2e-06 1000.0 5.39591534962e-05 0.000667933996798 0.000166030355188
47 1 2e-06 1000.0 4.0339309618e-05 0.000747695017922 0.000189295328426
48 1 2e-06 1000.0 4.96739575065e-05 0.000842415453531 0.000123737591846
49 1 2e-06 1000.0 5.51354077398e-05 0.000834641546196 0.000171170844702
50 1 2e-06 1000.0 5.24679889092e-05 0.000209302737145 0.000150892186612
51 1 2e-06 1000.0 6.00000504483e-05 0.000248918171977 0.000187943159547
52 1 2e-06 1000.0 2.76442504227e-05 0.00023542281998 0.000198115142342
53 1 2e-06 1000.0 3.42926345946e-05 0.000183822873958 0.000179589119635
54 1 2e-06 1000.0 8.50193074122e-05 0.000126501760964 0.000136820191256
55 1 2e-06 1000.0 7.47606573922e-05 0.000173266559096 0.000137093965879
56 1 2e-06 1000.0 9.15711996804e-05 9.87838464432e-05 6.86779772251e-05
57 1 2e-06 1000.0 0.000103799474415 0.000112847095682 0.000101239913825
58 1 2e-06 1000.0 2.85672153711e-05 0.000475093898104 0.000264124543644
59 1 2e-06 1000.0 4.66070389787e-05 0.000535435729803 0.000263713009017
60 1 2e-06 1000.0 5.06234980389e-05 0.000447342553676 0.000329465379525
61 1 2e-06 1000.0 2.6387267089e-05 0.000436237317172 0.000324739308038
62 1 2e-06 1000.0 5.34525995026e-05 0.000453419497228 0.000244626372511
63 1 2e-06 1000.0 4.36950239285e-05 0.000415778441138 0.000195983319932
64 1 2e-06 1000.0 6.3413872115e-05 0.000362396849827 0.000212551964706
65 1 2e-06 1000.0 4.89606982695e-05 0.000299161646923 0.000218240479037
66 1 2e-06 1000.0 0.000908109197112 0.000217001888465 0.00032250247519
67 1 2e-06 1000.0 0.000845428198045 0.00018427189448 0.000368649800992
68 1 2e-06 1000.0 0.00101805978342 0.000190790728311 0.000317965654005
69 1 2e-06 1000.0 0.00111938704691 0.000217480182503 0.000288352534235
70 1 2e-06 1000.0 0.000819438843494 0.00025725965917 0.000326308265263
71 1 2e-06 1000.0 0.000730053951235 0.000223897301264 0.000345050709896
72 1 2e-06 1000.0 0.000843370580741 0.000298231125906 0.000273656851844
73 1 2e-06 1000.0 0.000752680711496 0.000325234870623 0.000304749007613
74 1 2e-06 1000.0 0.00051993741392 0.000212055963211 0.000289607260445
75 1 2e-06 1000.0 0.000581358264062 0.000211880345868 0.000240434284332
76 1 2e-06 1000.0 0.000565724643597 0.000170326595592 0.000319838482111
77 1 2e-06 1000.0 0.000655444856655 0.000192230111919 0.000312959524569
78 1 2e-06 1000.0 0.000447101471048 0.000185364157881 0.000142351382251
79 1 2e-06 1000.0 0.000368733607005 0.000197945451605 0.000145813341904
80 1 2e-06 1000.0 0.000531606484683 0.000194029200652 0.000154432253789
81 1 2e-06 1000.0 0.000529374046352 0.000231134083448 0.000195114125585
82 1 2e-06 1000.0 0.000355440716498 0.000587885070614 0.000455964368956
83 1 2e-06 1000.0 0.000320498671218 0.000549959315097 0.000391390975458
84 1 2e-06 1000.0 0.000348722443374 0.000484019823904 0.000347579501767
85 1 2e-06 1000.0 0.000417476030088 0.00045105778392 0.000369257955166
86 1 2e-06 1000.0 0.000489866503064 0.000480106694523 0.000338822495538
87 1 2e-06 1000.0 0.000518813557514 0.000407149010544 0.000367436044746
88 1 2e-06 1000.0 0.000526043426076 0.000469382615994 0.000420101036019
89 1 2e-06 1000.0 0.000528978227387 0.000559741462861 0.000426120977266
90 1 2e-06 1000.0 0.000465750864434 0.000350392233157 0.000211476208929
91 1 2e-06 1000.0 0.000460178703554 0.000414231273265 0.00024612399601
92 1 2e-06 1000.0 0.000379406361158 0.000383932309092 0.000299479572339
93 1 2e-06 1000.0 0.000422599576119 0.000452672097644 0.000296540691734
94 1 2e-06 1000.0 0.000524260818945 0.000314350634598 0.000245823581745
95 1 2e-06 1000.0 0.000483884994635 0.000254411155077 0.0002409945896
96 1 2e-06 1000.0 0.000576282017816 0.000259886007794 0.000355968108614
97 1 2e-06 1000.0 0.000559890097978 0.000308257805243 0.000306897246582
98 1 2e-06 1000.0 0.000300931251216 0.000377948163254 0.00021204510248
99 1 2e-06 1000.0 0.000320987767449 0.000412112775225 0.000264897588829
100 1 2e-06 1000.0 0.000260572200913 0.000389570042138 0.000289272881931
101 1 2e-06 1000.0 0.00024495708026 0.000466431716518 0.00027091055124
102 1 2e-06 1000.0 0.000136921340541 0.000538323794262 0.000267360670226
103 1 2e-06 1000.0 0.00017212149562 0.000545071363336 0.00031520254663
104 1 2e-06 1000.0 0.000186974620211 0.000479431387524 0.00027204830386
105 1 2e-06 1000.0 0.000177372121759 0.000412367022979 0.000311699297159
106 1 2e-06 1000.0 0.000302829739433 0.00037221746982 0.000135899797145
107 1 2e-06 1000.0 0.000348083144262 0.000394331435743 0.000171840734618
108 1 2e-06 1000.0 0.000323509572139 0.000352760849042 9.6322597022e-05
109 1 2e-06 1000.0 0.000394700609461 0.00034085212832 0.00010847242358
110 1 2e-06 1000.0 0.000372985994332 0.000315546865116 6.61786687249e-05
111 1 2e-06 1000.0 0.000303305806002 0.000297581279535 7.23489555539e-05
112 1 2e-06 1000.0 0.000463998824841 0.000328763022601 4.42202217614e-05
113 1 2e-06 1000.0 0.000392947281709 0.000294848516134 3.96163978854e-05
114 1 2e-06 1000.0 0.000146102631028 0.00061895303458 0.000235068108177
115 1 2e-06 1000.0 0.000137031400828 0.000713739627689 0.000256782648598
116 1 2e-06 1000.0 0.000121692070709 0.000690404576064 0.000318801131834
117 1 2e-06 1000.0 0.000147409624614 0.000774922953206 0.000339606447017
118 1 2e-06 1000.0 6.73356299003e-05 0.000513843764357 0.000359564906124
119 1 2e-06 1000.0 5.80902408831e-05 0.000593360149991 0.000394280429603
120 1 2e-06 1000.0 9.958222602e-05 0.000546441228917 0.000337344200492
121 1 2e-06 1000.0 8.77081320019e-05 0.00063904336817 0.00033621199343
122 1 2e-06 1000.0 0.000132285829929 0.00113119660114 0.00026334164855
123 1 2e-06 1000.0 0.000134821206229 0.00102622316675 0.000225927583101
124 1 2e-06 1000.0 0.000127264453808 0.000989221178238 0.00028613035839
125 1 2e-06 1000.0 0.000102147173458 0.000891903611343 0.00027543403149
126 1 2e-06 1000.0 0.000214538708475 0.000763319364116 0.000301436428121
127 1 2e-06 1000.0 0.000276410048983 0.000768612705378 0.000311124291242
128 1 2e-06 1000.0 0.000169721017027 0.000822725014603 0.00028384247409
129 1 2e-06 1000.0 0.000171864089434 0.000940951163457 0.000278411131175
130 1 2e-06 1000.0 0.00262984317452 0.00105283055934 0.000513721331787
131 1 2e-06 1000.0 0.00261173980403 0.00103159821204 0.000428514074203
132 1 2e-06 1000.0 0.00240066419672 0.0012652534923 0.000480883309459
133 1 2e-06 1000.0 0.00248659384104 0.00114508794206 0.000502939919911
134 1 2e-06 1000.0 0.00263259265482 0.000908915960675 0.000417133698381
135 1 2e-06 1000.0 0.00274471586528 0.000875181250776 0.000354905505696
136 1 2e-06 1000.0 0.00270072524878 0.000926282742604 0.000496845333804
137 1 2e-06 1000.0 0.00285734676337 0.00100350204934 0.000519260633594
138 1 2e-06 1000.0 0.00210897420568 0.00101340965006 0.000499371074175
139 1 2e-06 1000.0 0.00221267196523 0.00111372918628 0.000527626728687
140 1 2e-06 1000.0 0.0024776406219 0.000981349466213 0.000482942271274
141 1 2e-06 1000.0 0.00228301638255 0.000972526389564 0.000483424476789
142 1 2e-06 1000.0 0.00198696621967 0.00132042035242 0.000527807357506
143 1 2e-06 1000.0 0.00196584636827 0.0012943682192 0.000441889392671
144 1 2e-06 1000.0 0.00223179636724 0.00128151968777 0.000614249959086
145 1 2e-06 1000.0 0.00213164956235 0.00123594523999 0.000539291198141
146 1 2e-06 1000.0 0.00144905633377 0.000582679105536 0.000436848446233
147 1 2e-06 1000.0 0.00146167376714 0.000631476809211 0.000367538005599
148 1 2e-06 1000.0 0.00127972804874 0.000619144593568 0.000335004621386
149 1 2e-06 1000.0 0.00131362578478 0.000580388624085 0.000403149188101
150 1 2e-06 1000.0 0.00140868896587 0.000691935865354 0.000425615746838
151 1 2e-06 1000.0 0.00154743821972 0.000733037941895 0.000409831171561
152 1 2e-06 1000.0 0.00171198682441 0.000919977670447 0.000395218433144
153 1 2e-06 1000.0 0.00159488427446 0.000837727749935 0.000394342559689
154 1 2e-06 1000.0 0.00184686405369 0.000860053772666 0.000622617226483
155 1 2e-06 1000.0 0.00192411327194 0.000819793111206 0.000542945554244
156 1 2e-06 1000.0 0.00206421134113 0.000813894770941 0.000486867689772
157 1 2e-06 1000.0 0.00208450012771 0.00091671290642 0.000446049429107
158 1 2e-06 1000.0 0.00184593309025 0.000931999627568 0.000469875684796
159 1 2e-06 1000.0 0.0019355185115 0.000903042148221 0.000401215002212
160 1 2e-06 1000.0 0.00188542092012 0.000774610578218 0.000326014161586
161 1 2e-06 1000.0 0.00182374043907 0.000877921985158 0.000344489728311
162 1 2e-06 1000.0 0.000968137853088 0.000433134384461 0.000571562396025
163 1 2e-06 1000.0 0.000858330108483 0.000425686130506 0.000533267448011
164 1 2e-06 1000.0 0.000890169175907 0.000501176913541 0.000570576963755
165 1 2e-06 1000.0 0.000859671787635 0.000506016281524 0.000482125289995
166 1 2e-06 1000.0 0.000670458454452 0.0004356011022 0.000490724280665
167 1 2e-06 1000.0 0.000623446085709 0.000480202531173 0.000556355545323
168 1 2e-06 1000.0 0.000774483390434 0.000361465793221 0.000491637804766
169 1 2e-06 1000.0 0.000747520791634 0.00041843069096 0.000550759803521
170 1 2e-06 1000.0 0.000667622572799 0.00040685620385 0.00020313386316
171 1 2e-06 1000.0 0.000607685414129 0.000432401446679 0.000163037831363
172 1 2e-06 1000.0 0.000729284637257 0.000367968001574 0.000168048733267
173 1 2e-06 1000.0 0.000784479434506 0.000419090527226 0.000199295426942
174 1 2e-06 1000.0 0.000812365580011 0.000372909986188 0.00024552670728
175 1 2e-06 1000.0 0.000789216355275 0.000396868436806 0.000307277603797
176 1 2e-06 1000.0 0.000743679290795 0.000436762836688 0.000363599078385
177 1 2e-06 1000.0 0.000657066126946 0.000425466616541 0.000407408116258
178 1 2e-06 1000.0 0.00108761785261 0.000609014183853 0.000537234256554
179 1 2e-06 1000.0 0.00101837199601 0.000649586782386 0.000470571762947
180 1 2e-06 1000.0 0.00097267832318 0.000771469710975 0.000474140724026
181 1 2e-06 1000.0 0.00108599968952 0.000731852315453 0.000500503109893
182 1 2e-06 1000.0 0.00117196278221 0.000599808255715 0.000467955911122
183 1 2e-06 1000.0 0.00124543570238 0.000521023738482 0.000453662657495
184 1 2e-06 1000.0 0.00131911783611 0.000484703790592 0.000391550922943
185 1 2e-06 1000.0 0.00120786457672 0.000529607900647 0.000362614431129
186 1 2e-06 1000.0 0.00106967837806 0.000463535886914 0.000393945105992
187 1 2e-06 1000.0 0.000983645330889 0.000449703095154 0.000453453620478
188 1 2e-06 1000.0 0.00107871455903 0.00053235426785 0.000457751504102
189 1 2e-06 1000.0 0.00106276534174 0.000469469102942 0.000519698981417
190 1 2e-06 1000.0 0.000904884493892 0.000389463219461 0.000303484238426
191 1 2e-06 1000.0 0.000970979943285 0.000423394960465 0.000254800867211
192 1 2e-06 1000.0 0.00104701851304 0.000445750467181 0.000321243880726
193 1 2e-06 1000.0 0.00109720834766 0.000413263267591 0.000264080700372
194 1 2e-06 1000.0 0.00172901650124 0.000970283117166 0.000776950692652
195 1 2e-06 1000.0 0.00180897823353 0.000987819509093 0.000683125345776
196 1 2e-06 1000.0 0.00177496615417 0.000832855522304 0.00078718890219
197 1 2e-06 1000.0 0.00167214302717 0.000892587270389 0.000855767688483
198 1 2e-06 1000.0 0.00149472556247 0.000799690811157 0.000771390671996
199 1 2e-06 1000.0 0.00144304927116 0.000741890982521 0.000686701986054
200 1 2e-06 1000.0 0.00164577750599 0.000770684961686 0.000754156862378
201 1 2e-06 1000.0 0.00163698291008 0.000671989235516 0.00071192838922
202 1 2e-06 1000.0 0.00152673344125 0.000560354636305 0.000753767250958
203 1 2e-06 1000.0 0.00154656925655 0.000605097959282 0.000660528216564
204 1 2e-06 1000.0 0.00148521981813 0.000541245281003 0.000597119469903
205 1 2e-06 1000.0 0.00139136659933 0.000470701827762 0.000601135112279
206 1 2e-06 1000.0 0.00134216085731 0.000562309135527 0.000505553266232
207 1 2e-06 1000.0 0.00125940171662 0.000497478913885 0.000543836495603
208 1 2e-06 1000.0 0.00139913597483 0.000388096553774 0.000605295627411
209 1 2e-06 1000.0 0.0013259734124 0.000422179299885 0.000532963042725
210 1 2e-06 1000.0 0.00099969998691 0.000837340258435 0.0010540907998
211 1 2e-06 1000.0 0.000957704558151 0.000908049877197 0.00096173945652
212 1 2e-06 1000.0 0.00108367258444 0.000926972516377 0.000954915517257
213 1 2e-06 1000.0 0.0011454331478 0.000864497822366 0.000868382508799
214 1 2e-06 1000.0 0.000792471022964 0.00105891836498 0.000975565519741
215 1 2e-06 1000.0 0.000902334779831 0.0010168325091 0.000981390351532
216 1 2e-06 1000.0 0.000754299038811 0.00115976209251 0.000907353669774
217 1 2e-06 1000.0 0.000658424256663 0.00113641981196 0.000860376520293
218 1 2e-06 1000.0 0.00135242628694 0.000787389123467 0.000806655130282
219 1 2e-06 1000.0 0.00143350162463 0.000767158508611 0.000902480040751
220 1 2e-06 1000.0 0.00115850866484 0.000742763838268 0.000788578568392
221 1 2e-06 1000.0 0.00122887219622 0.000839196378874 0.000780465762365
222 1 2e-06 1000.0 0.00148414010357 0.000873937106714 0.000674766463148
223 1 2e-06 1000.0 0.00135165465052 0.000864054219384 0.000724250613532
224 1 2e-06 1000.0 0.00132447083739 0.00105537713918 0.00059582746741
225 1 2e-06 1000.0 0.00133064213773 0.000956930982681 0.000658839411076
226 1 2e-06 1000.0 0.000996468385102 0.000672965960416 0.00155367205008
227 1 2e-06 1000.0 0.000935964944356 0.000686190293004 0.00142038433771
228 1 2e-06 1000.0 0.000834211052042 0.000764990236038 0.00152370102197
229 1 2e-06 1000.0 0.000842096042583 0.000743483326555 0.00137478194559
230 1 2e-06 1000.0 0.000842099794521 0.000574444112144 0.00164209287851
231 1 2e-06 1000.0 0.000877329186924 0.000649599975493 0.00154997016418
232 1 2e-06 1000.0 0.000953001241456 0.00072263835303 0.00177003748023
233 1 2e-06 1000.0 0.000857210286739 0.000674240766609 0.00170413731116
234 1 2e-06 1000.0 0.000838534491988 0.000978010723941 0.00117786711871
235 1 2e-06 1000.0 0.000858095073478 0.000861922054048 0.00114579556974
236 1 2e-06 1000.0 0.000735933619156 0.000941352252915 0.0011403671269
237 1 2e-06 1000.0 0.000707981094425 0.000996495725907 0.00102741522455
238 1 2e-06 1000.0 0.000937971578573 0.000712910363593 0.00114044569653
239 1 2e-06 1000.0 0.000913540590148 0.000790928946311 0.00123321820241
240 1 2e-06 1000.0 0.000758912175762 0.000667945568701 0.00128750978413
241 1 2e-06 1000.0 0.000801096328347 0.000760688337649 0.00124163564139
242 1 2e-06 1000.0 0.00071486998909 0.000526480740969 0.00205931945489
243 1 2e-06 1000.0 0.000809035206811 0.000557214994304 0.00198668755292
244 1 2e-06 1000.0 0.000667718998593 0.000426116493168 0.00180689840568
245 1 2e-06 1000.0 0.00072408850979 0.00047292760517 0.00191736054287
246 1 2e-06 1000.0 0.000581390091895 0.000510227029703 0.00164396070642
247 1 2e-06 1000.0 0.000583225157418 0.000603112483761 0.00167182613986
248 1 2e-06 1000.0 0.000649381868625 0.000535582528601 0.00190543163965
249 1 2e-06 1000.0 0.000662220818024 0.000518660150024 0.00173901918596
250 1 2e-06 1000.0 0.000822648089062 0.000401434663319 0.00183507873902
251 1 2e-06 1000.0 0.000754325732564 0.000374334125597 0.00171458240668
252 1 2e-06 1000.0 0.00075791418206 0.000454089624461 0.00168291109273
253 1 2e-06 1000.0 0.000767061927078 0.000536040100965 0.00174571864753
254 1 2e-06 1000.0 0.000866579109627 0.000480038994917 0.00168026036996
255 1 2e-06 1000.0 0.000946049105594 0.000417855630676 0.00165427477598
256 1 2e-06 1000.0 0.000904109953869 0.000391947263013 0.00151392925625
257 1 2e-06 1000.0 0.000966426604104 0.000358126068856 0.0014007365423
258 1 2e-06 1000.0 0.00377075980159 0.00032162226281 0.000391617145585
259 1 2e-06 1000.0 0.00394068075004 0.000280473923055 0.000425919619679
260 1 2e-06 1000.0 0.00389548607464 0.000346218548483 0.000457130718094
261 1 2e-06 1000.0 0.00402191751456 0.000398477055642 0.000504233060066
262 1 2e-06 1000.0 0.0036473142331 0.000152308464094 0.000415620717151
263 1 2e-06 1000.0 0.00377887516564 0.000196678675129 0.000413605163611
264 1 2e-06 1000.0 0.00388919782561 0.000212820649352 0.000347369606912
265 1 2e-06 1000.0 0.003856193658 0.000274439523967 0.000342411320383
266 1 2e-06 1000.0 0.00384938528906 7.99332673125e-05 0.000415566307921
267 1 2e-06 1000.0 0.00377538527069 5.13995195972e-05 0.000387132295132
268 1 2e-06 1000.0 0.00358095468254 0.000107928725014 0.000399090700857
269 1 2e-06 1000.0 0.0037888460518 0.000116715493101 0.000437792191301
270 1 2e-06 1000.0 0.00418227188645 3.7251315793e-05 0.000461453893648
271 1 2e-06 1000.0 0.00397105412299 3.76792357638e-05 0.000414443772091
272 1 2e-06 1000.0 0.00439499054857 2.42519292183e-05 0.00038232206192
273 1 2e-06 1000.0 0.00418284111998 3.66760307016e-05 0.000370304521789
274 1 2e-06 1000.0 0.00389114604168 0.000362042542392 0.000595021109504
275 1 2e-06 1000.0 0.00383417739186 0.000296566529709 0.000560125567592
276 1 2e-06 1000.0 0.00412583837153 0.00038456743837 0.000618343620107
277 1 2e-06 1000.0 0.00430676469722 0.000442880633029 0.000620278584311
278 1 2e-06 1000.0 0.00395322452946 0.00052194431768 0.000547855628176
279 1 2e-06 1000.0 0.0039407004597 0.000439324491785 0.00057909076696
280 1 2e-06 1000.0 0.00381013348313 0.00054234109505 0.00072218250616
281 1 2e-06 1000.0 0.00397038090915 0.000544442421378 0.000642180303968
282 1 2e-06 1000.0 0.00406227973703 0.000602262473014 0.000496563770269
283 1 2e-06 1000.0 0.00395453771105 0.000682992380482 0.000459014183629
284 1 2e-06 1000.0 0.00388225718643 0.000520895913827 0.000460037717295
285 1 2e-06 1000.0 0.00381671445941 0.00059225814254 0.000512787795113
286 1 2e-06 1000.0 0.00398161133442 0.000709922496816 0.000561397505262
287 1 2e-06 1000.0 0.00377687350409 0.000771905432879 0.00055973895295
288 1 2e-06 1000.0 0.00369288989197 0.000673203343904 0.000541371141848
289 1 2e-06 1000.0 0.00350626456637 0.000638843426849 0.000591982961083
290 1 2e-06 1000.0 0.00410621263963 0.000110731931558 0.000625878133858
291 1 2e-06 1000.0 0.00434879403074 0.00012459818659 0.000609357927145
292 1 2e-06 1000.0 0.00407839872669 7.32174176486e-05 0.000640703790318
293 1 2e-06 1000.0 0.00390253048709 8.50880393462e-05 0.000577958552198
294 1 2e-06 1000.0 0.00404726385714 2.25080019803e-05 0.000506424019894
295 1 2e-06 1000.0 0.00410916792075 2.71261246517e-05 0.000594772154067
296 1 2e-06 1000.0 0.00380796770982 5.64204859965e-05 0.000544929239524
297 1 2e-06 1000.0 0.00382651649896 3.24380698512e-05 0.000507111911809
298 1 2e-06 1000.0 0.00376239524312 0.000129367002632 0.000760312102058
299 1 2e-06 1000.0 0.00391721202006 0.000135760235679 0.000847433679004
300 1 2e-06 1000.0 0.00401869844234 9.50208065217e-05 0.00072085323392
301 1 2e-06 1000.0 0.00412371280987 0.000122436336972 0.000790101165446
302 1 2e-06 1000.0 0.00365295104732 0.000237158742781 0.000838570320407
303 1 2e-06 1000.0 0.00378898818835 0.000280095624477 0.000896622800138
304 1 2e-06 1000.0 0.00360068477103 0.000181841152475 0.000860695627238
305 1 2e-06 1000.0 0.00368371755143 0.000135802703617 0.000885252012104
306 1 2e-06 1000.0 0.00314320392458 0.000130502037572 0.0012856964263
307 1 2e-06 1000.0 0.00325959580923 0.000162153318456 0.00136630678139
308 1 2e-06 1000.0 0.00329828553676 0.000216632547342 0.00128428510254
309 1 2e-06 1000.0 0.00342855889206 0.000197246495662 0.00139489315273
310 1 2e-06 1000.0 0.00334673476932 0.000120967873104 0.0011662752921
311 1 2e-06 1000.0 0.00324779702652 0.000162069701245 0.00120119451017
312 1 2e-06 1000.0 0.00351852838948 0.000132955070887 0.00108233956157
313 1 2e-06 1000.0 0.00349990217768 0.000145207953289 0.000959389738412
314 1 2e-06 1000.0 0.00245643724088 0.000112362299706 0.00151133422401
315 1 2e-06 1000.0 0.00256875866209 9.15028720702e-05 0.00161362407983
316 1 2e-06 1000.0 0.00254180935195 0.000149074024016 0.00144787868132
317 1 2e-06 1000.0 0.00272624563564 0.000146025984138 0.00151474501471
318 1 2e-06 1000.0 0.00310503281581 0.00013734759234 0.00144472267978
319 1 2e-06 1000.0 0.0030974797565 0.000173472413666 0.00155109213502
320 1 2e-06 1000.0 0.00288906658388 0.000138176570428 0.00141997717122
321 1 2e-06 1000.0 0.00296235867113 0.000101398445289 0.00135757100886
322 1 2e-06 1000.0 0.00338678878413 0.00116970587091 0.000359911415006
323 1 2e-06 1000.0 0.00335295708674 0.00108549907559 0.000420325288711
324 1 2e-06 1000.0 0.00356197785897 0.00102594351417 0.000420764309726
325 1 2e-06 1000.0 0.00368549933971 0.00112521412699 0.000454636096718
326 1 2e-06 1000.0 0.00317804001204 0.00115335863389 0.000480624448622
327 1 2e-06 1000.0 0.00333851379918 0.00107117022217 0.000512288702774
328 1 2e-06 1000.0 0.00312060651118 0.00104916825273 0.000533197347833
329 1 2e-06 1000.0 0.00304560490439 0.000979688467825 0.000606404313723
330 1 2e-06 1000.0 0.00290741529337 0.000975318438814 0.000842178307229
331 1 2e-06 1000.0 0.0030264110666 0.000873501019216 0.000843985877458
332 1 2e-06 1000.0 0.00321010204516 0.000993120559216 0.000994274961404
333 1 2e-06 1000.0 0.0030226321081 0.0010221804744 0.000933119997203
334 1 2e-06 1000.0 0.00290337495099 0.000901049564586 0.000567207350181
335 1 2e-06 1000.0 0.00292370013407 0.00079081108715 0.000596521399261
336 1 2e-06 1000.0 0.00278175841356 0.000902029418991 0.000648156073366
337 1 2e-06 1000.0 0.00286120737444 0.000919385409853 0.000744819994652
338 1 2e-06 1000.0 0.00270286430046 0.00151235704508 0.000377513069981
339 1 2e-06 1000.0 0.00269799153796 0.00167172772549 0.000380740423086
340 1 2e-06 1000.0 0.00298245952506 0.00165582486683 0.000291129735684
341 1 2e-06 1000.0 0.00289850307076 0.00167998959842 0.000356557643528
342 1 2e-06 1000.0 0.00295264880777 0.00165624613501 0.000432521309132
343 1 2e-06 1000.0 0.00308896505053 0.0015746384055 0.00048371192238
344 1 2e-06 1000.0 0.00284467041483 0.00161421670167 0.000503898294726
345 1 2e-06 1000.0 0.00288773119927 0.00176654452149 0.000532866726839
346 1 2e-06 1000.0 0.00319371696753 0.00143613525208 0.000364426720227
347 1 2e-06 1000.0 0.00338125910098 0.00138828639385 0.000328736603439
348 1 2e-06 1000.0 0.00313235321539 0.00157622064405 0.00040127070202
349 1 2e-06 1000.0 0.0029809983078 0.00147604682616 0.000373943303459
350 1 2e-06 1000.0 0.00297001548516 0.00128307747764 0.000400143746982
351 1 2e-06 1000.0 0.00296904514453 0.00139837607617 0.000450986851016
352 1 2e-06 1000.0 0.00325604170646 0.00128499196298 0.000362443069293
353 1 2e-06 1000.0 0.00310484042321 0.00118271811485 0.000373455928797
354 1 2e-06 1000.0 0.00330018461764 0.000803031571998 0.00137412255067
355 1 2e-06 1000.0 0.00310481989849 0.000756813364589 0.00141736412791
356 1 2e-06 1000.0 0.003303155123 0.00090763590309 0.00130868606941
357 1 2e-06 1000.0 0.00339418867667 0.000896307991302 0.00144437217384
358 1 2e-06 1000.0 0.00310973002268 0.000759836644538 0.00107836110564
359 1 2e-06 1000.0 0.0032994514714 0.000743346752269 0.00114837306939
360 1 2e-06 1000.0 0.00318313622879 0.00075396194467 0.00126708217879
361 1 2e-06 1000.0 0.0030956219862 0.000656261006486 0.00126995094916
362 1 2e-06 1000.0 0.00282165955683 0.000819631713835 0.00109695695922
363 1 2e-06 1000.0 0.00286216452888 0.000860498122821 0.00122171131798
364 1 2e-06 1000.0 0.00287761916063 0.000726698016749 0.00116177088299
365 1 2e-06 1000.0 0.00294622782445 0.000693981691257 0.00104268120077
366 1 2e-06 1000.0 0.00269899359845 0.000890633885804 0.000911141497935
367 1 2e-06 1000.0 0.0026615345517 0.000865907142057 0.00103088366202
368 1 2e-06 1000.0 0.00270946969395 0.00106009916031 0.0010202534238
369 1 2e-06 1000.0 0.00272156329472 0.00101309072282 0.000904989345375
370 1 2e-06 1000.0 0.00315686097934 0.000601534750912 0.000606793887415
371 1 2e-06 1000.0 0.00324231830071 0.00052074528448 0.00057186411316
372 1 2e-06 1000.0 0.00299427212695 0.000564956655896 0.000663748289822
373 1 2e-06 1000.0 0.0030797496003 0.000563967016487 0.00076213009162
374 1 2e-06 1000.0 0.00329993473919 0.000679562297329 0.000616208001907
375 1 2e-06 1000.0 0.0032818568719 0.000785903014429 0.000599719429097
376 1 2e-06 1000.0 0.00316005414294 0.000878086730902 0.000626522671509
377 1 2e-06 1000.0 0.00334779626625 0.00086575225332 0.0006836902183
378 1 2e-06 1000.0 0.00340001022672 0.000586487360663 0.000911604104889
379 1 2e-06 1000.0 0.00320251897764 0.000591873025211 0.000851251604337
380 1 2e-06 1000.0 0.00349821150694 0.000541140003034 0.00100732314619
381 1 2e-06 1000.0 0.00342316478808 0.000573110426962 0.00112283792434
382 1 2e-06 1000.0 0.00274001933287 0.000575367076543 0.000892233058334
383 1 2e-06 1000.0 0.00285965043733 0.000645200811596 0.000943737958449
384 1 2e-06 1000.0 0.00310624200975 0.000634220440906 0.000946670261316
385 1 2e-06 1000.0 0.00298022576262 0.00061546836031 0.000850870771806
386 1 2e-06 1000.0 0.00327322158529 0.00120373863018 0.00112748366928
387 1 2e-06 1000.0 0.00329054026291 0.00110673330401 0.00103588921268
388 1 2e-06 1000.0 0.00369162405808 0.00111261927914 0.00105988815146
389 1 2e-06 1000.0 0.00349826085845 0.0011792249985 0.00110308274007
390 1 2e-06 1000.0 0.00373239195819 0.00126265222007 0.0011313653071
391 1 2e-06 1000.0 0.00388916525373 0.00115533289738 0.0011267849614
392 1 2e-06 1000.0 0.00408756663873 0.00126915015312 0.00113119672685
393 1 2e-06 1000.0 0.00390242931544 0.00136512462944 0.00110941338684
394 1 2e-06 1000.0 0.00383334454305 0.000917896270478 0.00110941487986
395 1 2e-06 1000.0 0.00384007371604 0.0010142419161 0.0010269185505
396 1 2e-06 1000.0 0.00411811844594 0.000826088902989 0.00121046090307
397 1 2e-06 1000.0 0.0038803261612 0.000862921396148 0.00122796189408
398 1 2e-06 1000.0 0.00448271364944 0.00072558486798 0.00107420722673
399 1 2e-06 1000.0 0.00430048570172 0.000755595814222 0.00116408825515
400 1 2e-06 1000.0 0.00431797473671 0.000651187412441 0.00111844993988
401 1 2e-06 1000.0 0.00437836794222 0.000592927630023 0.00101670756022
402 1 2e-06 1000.0 0.00464594534907 0.000380810637838 0.000777103572306
403 1 2e-06 1000.0 0.00483340742069 0.000404032919206 0.000853760428177
404 1 2e-06 1000.0 0.00509905154409 0.00045565361891 0.000890583630947
405 1 2e-06 1000.0 0.00498975942064 0.000450609917659 0.000784021042345
406 1 2e-06 1000.0 0.00498499281685 0.000368220342819 0.00121427127412
407 1 2e-06 1000.0 0.00486809805433 0.000397747906135 0.0011017048548
408 1 2e-06 1000.0 0.00483348618621 0.000395641016251 0.000973948003785
409 1 2e-06 1000.0 0.00508716455424 0.000415565727279 0.00101909323315
410 1 2e-06 1000.0 0.00409215840351 0.000333889111739 0.000747519613674
411 1 2e-06 1000.0 0.00425665592496 0.00038982531403 0.000773052375257
412 1 2e-06 1000.0 0.0041961930319 0.000315500901124 0.000846675875757
413 1 2e-06 1000.0 0.00411179271428 0.000253189114903 0.000824495629856
414 1 2e-06 1000.0 0.0044678370311 0.000506301323365 0.000890883381323
415 1 2e-06 1000.0 0.00456143386614 0.000524735971555 0.00100349485377
416 1 2e-06 1000.0 0.0043672045711 0.000461627602098 0.000745038384185
417 1 2e-06 1000.0 0.00448484522259 0.000429818235192 0.000836565653276